# vtk DataFile Version 3.0
VTK File Generated by Insight Segmentation and Registration Toolkit (ITK)
ASCII
DATASET STRUCTURED_POINTS
DIMENSIONS 3 5 7 
SPACING 1 1 1
ORIGIN 0 0 0
POINT_DATA 105
SCALARS scalars unsigned_char 1
LOOKUP_TABLE default
1 2 3 2 4 6 
3 6 9 4 8 12 
5 10 15 2 4 6 
4 8 12 6 12 18 
8 16 24 10 20 30 
3 6 9 6 12 18 
9 18 27 12 24 36 
15 30 45 4 8 12 
8 16 24 12 24 36 
16 32 48 20 40 60 
5 10 15 10 20 30 
15 30 45 20 40 60 
25 50 75 6 12 18 
12 24 36 18 36 54 
24 48 72 30 60 90 
7 14 21 14 28 42 
21 42 63 28 56 84 
35 70 105 